LAMMPS data file. CGCMM style. atom_style charge generated by VMD/TopoTools v1.7 on Fri Aug 23 17:45:39 -03 2024
 2016 atoms
 0 bonds
 0 angles
 0 dihedrals
 0 impropers
 3 atom types
 0 bond types
 0 angle types
 0 dihedral types
 0 improper types
 -1.2522729635238647 49.71250124  xlo xhi
 -1.25 101.6780014038086  ylo yhi
 -50.000000 50.000000  zlo zhi

# Pair Coeffs
#
# 1  B
# 2  C
# 3  N

 Masses

 1 10.811000 # B
 2 12.010700 # C
 3 14.006700 # N

 Atoms # charge

1 2 0.000000 0.000000 0.000000 0.000000 # C
2 2 0.000000 -1.228024 0.709000 0.000000 # C
3 2 0.000000 -1.228024 2.127000 0.000000 # C
4 2 0.000000 0.000000 2.836000 0.000000 # C
5 2 0.000000 2.456048 0.000000 0.000000 # C
6 2 0.000000 1.228024 0.709000 0.000000 # C
7 2 0.000000 1.228024 2.127000 0.000000 # C
8 2 0.000000 2.456048 2.836000 0.000000 # C
9 2 0.000000 4.912096 0.000000 0.000000 # C
10 2 0.000000 3.684072 0.709000 0.000000 # C
11 2 0.000000 3.684072 2.127000 0.000000 # C
12 2 0.000000 4.912096 2.836000 0.000000 # C
13 2 0.000000 7.368144 0.000000 0.000000 # C
14 2 0.000000 6.140120 0.709000 0.000000 # C
15 2 0.000000 6.140120 2.127000 0.000000 # C
16 2 0.000000 7.368144 2.836000 0.000000 # C
17 2 0.000000 9.824192 0.000000 0.000000 # C
18 2 0.000000 8.596169 0.709000 0.000000 # C
19 2 0.000000 8.596169 2.127000 0.000000 # C
20 2 0.000000 9.824192 2.836000 0.000000 # C
21 2 0.000000 12.280240 0.000000 0.000000 # C
22 2 0.000000 11.052217 0.709000 0.000000 # C
23 2 0.000000 11.052217 2.127000 0.000000 # C
24 2 0.000000 12.280240 2.836000 0.000000 # C
25 2 0.000000 14.736288 0.000000 0.000000 # C
26 2 0.000000 13.508265 0.709000 0.000000 # C
27 2 0.000000 13.508265 2.127000 0.000000 # C
28 2 0.000000 14.736288 2.836000 0.000000 # C
29 2 0.000000 17.192337 0.000000 0.000000 # C
30 2 0.000000 15.964313 0.709000 0.000000 # C
31 2 0.000000 15.964313 2.127000 0.000000 # C
32 2 0.000000 17.192337 2.836000 0.000000 # C
33 2 0.000000 19.648384 0.000000 0.000000 # C
34 2 0.000000 18.420361 0.709000 0.000000 # C
35 2 0.000000 18.420361 2.127000 0.000000 # C
36 2 0.000000 19.648384 2.836000 0.000000 # C
37 2 0.000000 22.104433 0.000000 0.000000 # C
38 2 0.000000 20.876408 0.709000 0.000000 # C
39 2 0.000000 20.876408 2.127000 0.000000 # C
40 2 0.000000 22.104433 2.836000 0.000000 # C
41 2 0.000000 24.560480 0.000000 0.000000 # C
42 2 0.000000 23.332457 0.709000 0.000000 # C
43 2 0.000000 23.332457 2.127000 0.000000 # C
44 2 0.000000 24.560480 2.836000 0.000000 # C
45 2 0.000000 27.016529 0.000000 0.000000 # C
46 2 0.000000 25.788504 0.709000 0.000000 # C
47 2 0.000000 25.788504 2.127000 0.000000 # C
48 2 0.000000 27.016529 2.836000 0.000000 # C
49 2 0.000000 29.472576 0.000000 0.000000 # C
50 2 0.000000 28.244553 0.709000 0.000000 # C
51 2 0.000000 28.244553 2.127000 0.000000 # C
52 2 0.000000 29.472576 2.836000 0.000000 # C
53 2 0.000000 31.928625 0.000000 0.000000 # C
54 2 0.000000 30.700600 0.709000 0.000000 # C
55 2 0.000000 30.700600 2.127000 0.000000 # C
56 2 0.000000 31.928625 2.836000 0.000000 # C
57 2 0.000000 34.384674 0.000000 0.000000 # C
58 2 0.000000 33.156647 0.709000 0.000000 # C
59 2 0.000000 33.156647 2.127000 0.000000 # C
60 2 0.000000 34.384674 2.836000 0.000000 # C
61 2 0.000000 36.840721 0.000000 0.000000 # C
62 2 0.000000 35.612698 0.709000 0.000000 # C
63 2 0.000000 35.612698 2.127000 0.000000 # C
64 2 0.000000 36.840721 2.836000 0.000000 # C
65 2 0.000000 39.296768 0.000000 0.000000 # C
66 2 0.000000 38.068745 0.709000 0.000000 # C
67 2 0.000000 38.068745 2.127000 0.000000 # C
68 2 0.000000 39.296768 2.836000 0.000000 # C
69 2 0.000000 41.752815 0.000000 0.000000 # C
70 2 0.000000 40.524792 0.709000 0.000000 # C
71 2 0.000000 40.524792 2.127000 0.000000 # C
72 2 0.000000 41.752815 2.836000 0.000000 # C
73 2 0.000000 44.208866 0.000000 0.000000 # C
74 2 0.000000 42.980843 0.709000 0.000000 # C
75 2 0.000000 42.980843 2.127000 0.000000 # C
76 2 0.000000 44.208866 2.836000 0.000000 # C
77 2 0.000000 46.664913 0.000000 0.000000 # C
78 2 0.000000 45.436890 0.709000 0.000000 # C
79 2 0.000000 45.436890 2.127000 0.000000 # C
80 2 0.000000 46.664913 2.836000 0.000000 # C
81 2 0.000000 49.120960 0.000000 0.000000 # C
82 2 0.000000 47.892937 0.709000 0.000000 # C
83 2 0.000000 47.892937 2.127000 0.000000 # C
84 2 0.000000 49.120960 2.836000 0.000000 # C
85 2 0.000000 0.000000 4.254000 0.000000 # C
86 2 0.000000 -1.228024 4.963000 0.000000 # C
87 2 0.000000 -1.228024 6.381000 0.000000 # C
88 2 0.000000 0.000000 7.090000 0.000000 # C
89 2 0.000000 2.456048 4.254000 0.000000 # C
90 2 0.000000 1.228024 4.963000 0.000000 # C
91 2 0.000000 1.228024 6.381000 0.000000 # C
92 2 0.000000 2.456048 7.090000 0.000000 # C
93 2 0.000000 4.912096 4.254000 0.000000 # C
94 2 0.000000 3.684072 4.963000 0.000000 # C
95 2 0.000000 3.684072 6.381000 0.000000 # C
96 2 0.000000 4.912096 7.090000 0.000000 # C
97 2 0.000000 7.368144 4.254000 0.000000 # C
98 2 0.000000 6.140120 4.963000 0.000000 # C
99 2 0.000000 6.140120 6.381000 0.000000 # C
100 2 0.000000 7.368144 7.090000 0.000000 # C
101 2 0.000000 9.824192 4.254000 0.000000 # C
102 2 0.000000 8.596169 4.963000 0.000000 # C
103 2 0.000000 8.596169 6.381000 0.000000 # C
104 2 0.000000 9.824192 7.090000 0.000000 # C
105 2 0.000000 12.280240 4.254000 0.000000 # C
106 2 0.000000 11.052217 4.963000 0.000000 # C
107 2 0.000000 11.052217 6.381000 0.000000 # C
108 2 0.000000 12.280240 7.090000 0.000000 # C
109 2 0.000000 14.736288 4.254000 0.000000 # C
110 2 0.000000 13.508265 4.963000 0.000000 # C
111 2 0.000000 13.508265 6.381000 0.000000 # C
112 2 0.000000 14.736288 7.090000 0.000000 # C
113 2 0.000000 17.192337 4.254000 0.000000 # C
114 2 0.000000 15.964313 4.963000 0.000000 # C
115 2 0.000000 15.964313 6.381000 0.000000 # C
116 2 0.000000 17.192337 7.090000 0.000000 # C
117 2 0.000000 19.648384 4.254000 0.000000 # C
118 2 0.000000 18.420361 4.963000 0.000000 # C
119 2 0.000000 18.420361 6.381000 0.000000 # C
120 2 0.000000 19.648384 7.090000 0.000000 # C
121 2 0.000000 22.104433 4.254000 0.000000 # C
122 2 0.000000 20.876408 4.963000 0.000000 # C
123 2 0.000000 20.876408 6.381000 0.000000 # C
124 2 0.000000 22.104433 7.090000 0.000000 # C
125 2 0.000000 24.560480 4.254000 0.000000 # C
126 2 0.000000 23.332457 4.963000 0.000000 # C
127 2 0.000000 23.332457 6.381000 0.000000 # C
128 2 0.000000 24.560480 7.090000 0.000000 # C
129 2 0.000000 27.016529 4.254000 0.000000 # C
130 2 0.000000 25.788504 4.963000 0.000000 # C
131 2 0.000000 25.788504 6.381000 0.000000 # C
132 2 0.000000 27.016529 7.090000 0.000000 # C
133 2 0.000000 29.472576 4.254000 0.000000 # C
134 2 0.000000 28.244553 4.963000 0.000000 # C
135 2 0.000000 28.244553 6.381000 0.000000 # C
136 2 0.000000 29.472576 7.090000 0.000000 # C
137 2 0.000000 31.928625 4.254000 0.000000 # C
138 2 0.000000 30.700600 4.963000 0.000000 # C
139 2 0.000000 30.700600 6.381000 0.000000 # C
140 2 0.000000 31.928625 7.090000 0.000000 # C
141 2 0.000000 34.384674 4.254000 0.000000 # C
142 2 0.000000 33.156647 4.963000 0.000000 # C
143 2 0.000000 33.156647 6.381000 0.000000 # C
144 2 0.000000 34.384674 7.090000 0.000000 # C
145 2 0.000000 36.840721 4.254000 0.000000 # C
146 2 0.000000 35.612698 4.963000 0.000000 # C
147 2 0.000000 35.612698 6.381000 0.000000 # C
148 2 0.000000 36.840721 7.090000 0.000000 # C
149 2 0.000000 39.296768 4.254000 0.000000 # C
150 2 0.000000 38.068745 4.963000 0.000000 # C
151 2 0.000000 38.068745 6.381000 0.000000 # C
152 2 0.000000 39.296768 7.090000 0.000000 # C
153 2 0.000000 41.752815 4.254000 0.000000 # C
154 2 0.000000 40.524792 4.963000 0.000000 # C
155 2 0.000000 40.524792 6.381000 0.000000 # C
156 2 0.000000 41.752815 7.090000 0.000000 # C
157 2 0.000000 44.208866 4.254000 0.000000 # C
158 2 0.000000 42.980843 4.963000 0.000000 # C
159 2 0.000000 42.980843 6.381000 0.000000 # C
160 2 0.000000 44.208866 7.090000 0.000000 # C
161 2 0.000000 46.664913 4.254000 0.000000 # C
162 2 0.000000 45.436890 4.963000 0.000000 # C
163 2 0.000000 45.436890 6.381000 0.000000 # C
164 2 0.000000 46.664913 7.090000 0.000000 # C
165 2 0.000000 49.120960 4.254000 0.000000 # C
166 2 0.000000 47.892937 4.963000 0.000000 # C
167 2 0.000000 47.892937 6.381000 0.000000 # C
168 2 0.000000 49.120960 7.090000 0.000000 # C
169 2 0.000000 0.000000 8.508000 0.000000 # C
170 2 0.000000 -1.228024 9.217000 0.000000 # C
171 2 0.000000 -1.228024 10.635000 0.000000 # C
172 2 0.000000 0.000000 11.344000 0.000000 # C
173 2 0.000000 2.456048 8.508000 0.000000 # C
174 2 0.000000 1.228024 9.217000 0.000000 # C
175 2 0.000000 1.228024 10.635000 0.000000 # C
176 2 0.000000 2.456048 11.344000 0.000000 # C
177 2 0.000000 4.912096 8.508000 0.000000 # C
178 2 0.000000 3.684072 9.217000 0.000000 # C
179 2 0.000000 3.684072 10.635000 0.000000 # C
180 2 0.000000 4.912096 11.344000 0.000000 # C
181 2 0.000000 7.368144 8.508000 0.000000 # C
182 2 0.000000 6.140120 9.217000 0.000000 # C
183 2 0.000000 6.140120 10.635000 0.000000 # C
184 2 0.000000 7.368144 11.344000 0.000000 # C
185 2 0.000000 9.824192 8.508000 0.000000 # C
186 2 0.000000 8.596169 9.217000 0.000000 # C
187 2 0.000000 8.596169 10.635000 0.000000 # C
188 2 0.000000 9.824192 11.344000 0.000000 # C
189 2 0.000000 12.280240 8.508000 0.000000 # C
190 2 0.000000 11.052217 9.217000 0.000000 # C
191 2 0.000000 11.052217 10.635000 0.000000 # C
192 2 0.000000 12.280240 11.344000 0.000000 # C
193 2 0.000000 14.736288 8.508000 0.000000 # C
194 2 0.000000 13.508265 9.217000 0.000000 # C
195 2 0.000000 13.508265 10.635000 0.000000 # C
196 2 0.000000 14.736288 11.344000 0.000000 # C
197 2 0.000000 17.192337 8.508000 0.000000 # C
198 2 0.000000 15.964313 9.217000 0.000000 # C
199 2 0.000000 15.964313 10.635000 0.000000 # C
200 2 0.000000 17.192337 11.344000 0.000000 # C
201 2 0.000000 19.648384 8.508000 0.000000 # C
202 2 0.000000 18.420361 9.217000 0.000000 # C
203 2 0.000000 18.420361 10.635000 0.000000 # C
204 2 0.000000 19.648384 11.344000 0.000000 # C
205 2 0.000000 22.104433 8.508000 0.000000 # C
206 2 0.000000 20.876408 9.217000 0.000000 # C
207 2 0.000000 20.876408 10.635000 0.000000 # C
208 2 0.000000 22.104433 11.344000 0.000000 # C
209 2 0.000000 24.560480 8.508000 0.000000 # C
210 2 0.000000 23.332457 9.217000 0.000000 # C
211 2 0.000000 23.332457 10.635000 0.000000 # C
212 2 0.000000 24.560480 11.344000 0.000000 # C
213 2 0.000000 27.016529 8.508000 0.000000 # C
214 2 0.000000 25.788504 9.217000 0.000000 # C
215 2 0.000000 25.788504 10.635000 0.000000 # C
216 2 0.000000 27.016529 11.344000 0.000000 # C
217 2 0.000000 29.472576 8.508000 0.000000 # C
218 2 0.000000 28.244553 9.217000 0.000000 # C
219 2 0.000000 28.244553 10.635000 0.000000 # C
220 2 0.000000 29.472576 11.344000 0.000000 # C
221 2 0.000000 31.928625 8.508000 0.000000 # C
222 2 0.000000 30.700600 9.217000 0.000000 # C
223 2 0.000000 30.700600 10.635000 0.000000 # C
224 2 0.000000 31.928625 11.344000 0.000000 # C
225 2 0.000000 34.384674 8.508000 0.000000 # C
226 2 0.000000 33.156647 9.217000 0.000000 # C
227 2 0.000000 33.156647 10.635000 0.000000 # C
228 2 0.000000 34.384674 11.344000 0.000000 # C
229 2 0.000000 36.840721 8.508000 0.000000 # C
230 2 0.000000 35.612698 9.217000 0.000000 # C
231 2 0.000000 35.612698 10.635000 0.000000 # C
232 2 0.000000 36.840721 11.344000 0.000000 # C
233 2 0.000000 39.296768 8.508000 0.000000 # C
234 2 0.000000 38.068745 9.217000 0.000000 # C
235 2 0.000000 38.068745 10.635000 0.000000 # C
236 2 0.000000 39.296768 11.344000 0.000000 # C
237 2 0.000000 41.752815 8.508000 0.000000 # C
238 2 0.000000 40.524792 9.217000 0.000000 # C
239 2 0.000000 40.524792 10.635000 0.000000 # C
240 2 0.000000 41.752815 11.344000 0.000000 # C
241 2 0.000000 44.208866 8.508000 0.000000 # C
242 2 0.000000 42.980843 9.217000 0.000000 # C
243 2 0.000000 42.980843 10.635000 0.000000 # C
244 2 0.000000 44.208866 11.344000 0.000000 # C
245 2 0.000000 46.664913 8.508000 0.000000 # C
246 2 0.000000 45.436890 9.217000 0.000000 # C
247 2 0.000000 45.436890 10.635000 0.000000 # C
248 2 0.000000 46.664913 11.344000 0.000000 # C
249 2 0.000000 49.120960 8.508000 0.000000 # C
250 2 0.000000 47.892937 9.217000 0.000000 # C
251 2 0.000000 47.892937 10.635000 0.000000 # C
252 2 0.000000 49.120960 11.344000 0.000000 # C
253 2 0.000000 0.000000 12.762000 0.000000 # C
254 2 0.000000 -1.228024 13.471000 0.000000 # C
255 2 0.000000 -1.228024 14.889000 0.000000 # C
256 2 0.000000 0.000000 15.598000 0.000000 # C
257 2 0.000000 2.456048 12.762000 0.000000 # C
258 2 0.000000 1.228024 13.471000 0.000000 # C
259 2 0.000000 1.228024 14.889000 0.000000 # C
260 2 0.000000 2.456048 15.598000 0.000000 # C
261 2 0.000000 4.912096 12.762000 0.000000 # C
262 2 0.000000 3.684072 13.471000 0.000000 # C
263 2 0.000000 3.684072 14.889000 0.000000 # C
264 2 0.000000 4.912096 15.598000 0.000000 # C
265 2 0.000000 7.368144 12.762000 0.000000 # C
266 2 0.000000 6.140120 13.471000 0.000000 # C
267 2 0.000000 6.140120 14.889000 0.000000 # C
268 2 0.000000 7.368144 15.598000 0.000000 # C
269 2 0.000000 9.824192 12.762000 0.000000 # C
270 2 0.000000 8.596169 13.471000 0.000000 # C
271 2 0.000000 8.596169 14.889000 0.000000 # C
272 2 0.000000 9.824192 15.598000 0.000000 # C
273 2 0.000000 12.280240 12.762000 0.000000 # C
274 2 0.000000 11.052217 13.471000 0.000000 # C
275 2 0.000000 11.052217 14.889000 0.000000 # C
276 2 0.000000 12.280240 15.598000 0.000000 # C
277 2 0.000000 14.736288 12.762000 0.000000 # C
278 2 0.000000 13.508265 13.471000 0.000000 # C
279 2 0.000000 13.508265 14.889000 0.000000 # C
280 2 0.000000 14.736288 15.598000 0.000000 # C
281 2 0.000000 17.192337 12.762000 0.000000 # C
282 2 0.000000 15.964313 13.471000 0.000000 # C
283 2 0.000000 15.964313 14.889000 0.000000 # C
284 2 0.000000 17.192337 15.598000 0.000000 # C
285 2 0.000000 19.648384 12.762000 0.000000 # C
286 2 0.000000 18.420361 13.471000 0.000000 # C
287 2 0.000000 18.420361 14.889000 0.000000 # C
288 2 0.000000 19.648384 15.598000 0.000000 # C
289 2 0.000000 22.104433 12.762000 0.000000 # C
290 2 0.000000 20.876408 13.471000 0.000000 # C
291 2 0.000000 20.876408 14.889000 0.000000 # C
292 2 0.000000 22.104433 15.598000 0.000000 # C
293 2 0.000000 24.560480 12.762000 0.000000 # C
294 2 0.000000 23.332457 13.471000 0.000000 # C
295 2 0.000000 23.332457 14.889000 0.000000 # C
296 2 0.000000 24.560480 15.598000 0.000000 # C
297 2 0.000000 27.016529 12.762000 0.000000 # C
298 2 0.000000 25.788504 13.471000 0.000000 # C
299 2 0.000000 25.788504 14.889000 0.000000 # C
300 2 0.000000 27.016529 15.598000 0.000000 # C
301 2 0.000000 29.472576 12.762000 0.000000 # C
302 2 0.000000 28.244553 13.471000 0.000000 # C
303 2 0.000000 28.244553 14.889000 0.000000 # C
304 2 0.000000 29.472576 15.598000 0.000000 # C
305 2 0.000000 31.928625 12.762000 0.000000 # C
306 2 0.000000 30.700600 13.471000 0.000000 # C
307 2 0.000000 30.700600 14.889000 0.000000 # C
308 2 0.000000 31.928625 15.598000 0.000000 # C
309 2 0.000000 34.384674 12.762000 0.000000 # C
310 2 0.000000 33.156647 13.471000 0.000000 # C
311 2 0.000000 33.156647 14.889000 0.000000 # C
312 2 0.000000 34.384674 15.598000 0.000000 # C
313 2 0.000000 36.840721 12.762000 0.000000 # C
314 2 0.000000 35.612698 13.471000 0.000000 # C
315 2 0.000000 35.612698 14.889000 0.000000 # C
316 2 0.000000 36.840721 15.598000 0.000000 # C
317 2 0.000000 39.296768 12.762000 0.000000 # C
318 2 0.000000 38.068745 13.471000 0.000000 # C
319 2 0.000000 38.068745 14.889000 0.000000 # C
320 2 0.000000 39.296768 15.598000 0.000000 # C
321 2 0.000000 41.752815 12.762000 0.000000 # C
322 2 0.000000 40.524792 13.471000 0.000000 # C
323 2 0.000000 40.524792 14.889000 0.000000 # C
324 2 0.000000 41.752815 15.598000 0.000000 # C
325 2 0.000000 44.208866 12.762000 0.000000 # C
326 2 0.000000 42.980843 13.471000 0.000000 # C
327 2 0.000000 42.980843 14.889000 0.000000 # C
328 2 0.000000 44.208866 15.598000 0.000000 # C
329 2 0.000000 46.664913 12.762000 0.000000 # C
330 2 0.000000 45.436890 13.471000 0.000000 # C
331 2 0.000000 45.436890 14.889000 0.000000 # C
332 2 0.000000 46.664913 15.598000 0.000000 # C
333 2 0.000000 49.120960 12.762000 0.000000 # C
334 2 0.000000 47.892937 13.471000 0.000000 # C
335 2 0.000000 47.892937 14.889000 0.000000 # C
336 2 0.000000 49.120960 15.598000 0.000000 # C
337 2 0.000000 0.000000 17.016001 0.000000 # C
338 2 0.000000 -1.228024 17.725000 0.000000 # C
339 2 0.000000 -1.228024 19.143000 0.000000 # C
340 2 0.000000 0.000000 19.851999 0.000000 # C
341 2 0.000000 2.456048 17.016001 0.000000 # C
342 2 0.000000 1.228024 17.725000 0.000000 # C
343 2 0.000000 1.228024 19.143000 0.000000 # C
344 2 0.000000 2.456048 19.851999 0.000000 # C
345 2 0.000000 4.912096 17.016001 0.000000 # C
346 2 0.000000 3.684072 17.725000 0.000000 # C
347 2 0.000000 3.684072 19.143000 0.000000 # C
348 2 0.000000 4.912096 19.851999 0.000000 # C
349 2 0.000000 7.368144 17.016001 0.000000 # C
350 2 0.000000 6.140120 17.725000 0.000000 # C
351 2 0.000000 6.140120 19.143000 0.000000 # C
352 2 0.000000 7.368144 19.851999 0.000000 # C
353 2 0.000000 9.824192 17.016001 0.000000 # C
354 2 0.000000 8.596169 17.725000 0.000000 # C
355 2 0.000000 8.596169 19.143000 0.000000 # C
356 2 0.000000 9.824192 19.851999 0.000000 # C
357 2 0.000000 12.280240 17.016001 0.000000 # C
358 2 0.000000 11.052217 17.725000 0.000000 # C
359 2 0.000000 11.052217 19.143000 0.000000 # C
360 2 0.000000 12.280240 19.851999 0.000000 # C
361 2 0.000000 14.736288 17.016001 0.000000 # C
362 2 0.000000 13.508265 17.725000 0.000000 # C
363 2 0.000000 13.508265 19.143000 0.000000 # C
364 2 0.000000 14.736288 19.851999 0.000000 # C
365 2 0.000000 17.192337 17.016001 0.000000 # C
366 2 0.000000 15.964313 17.725000 0.000000 # C
367 2 0.000000 15.964313 19.143000 0.000000 # C
368 2 0.000000 17.192337 19.851999 0.000000 # C
369 2 0.000000 19.648384 17.016001 0.000000 # C
370 2 0.000000 18.420361 17.725000 0.000000 # C
371 2 0.000000 18.420361 19.143000 0.000000 # C
372 2 0.000000 19.648384 19.851999 0.000000 # C
373 2 0.000000 22.104433 17.016001 0.000000 # C
374 2 0.000000 20.876408 17.725000 0.000000 # C
375 2 0.000000 20.876408 19.143000 0.000000 # C
376 2 0.000000 22.104433 19.851999 0.000000 # C
377 2 0.000000 24.560480 17.016001 0.000000 # C
378 2 0.000000 23.332457 17.725000 0.000000 # C
379 2 0.000000 23.332457 19.143000 0.000000 # C
380 2 0.000000 24.560480 19.851999 0.000000 # C
381 2 0.000000 27.016529 17.016001 0.000000 # C
382 2 0.000000 25.788504 17.725000 0.000000 # C
383 2 0.000000 25.788504 19.143000 0.000000 # C
384 2 0.000000 27.016529 19.851999 0.000000 # C
385 2 0.000000 29.472576 17.016001 0.000000 # C
386 2 0.000000 28.244553 17.725000 0.000000 # C
387 2 0.000000 28.244553 19.143000 0.000000 # C
388 2 0.000000 29.472576 19.851999 0.000000 # C
389 2 0.000000 31.928625 17.016001 0.000000 # C
390 2 0.000000 30.700600 17.725000 0.000000 # C
391 2 0.000000 30.700600 19.143000 0.000000 # C
392 2 0.000000 31.928625 19.851999 0.000000 # C
393 2 0.000000 34.384674 17.016001 0.000000 # C
394 2 0.000000 33.156647 17.725000 0.000000 # C
395 2 0.000000 33.156647 19.143000 0.000000 # C
396 2 0.000000 34.384674 19.851999 0.000000 # C
397 2 0.000000 36.840721 17.016001 0.000000 # C
398 2 0.000000 35.612698 17.725000 0.000000 # C
399 2 0.000000 35.612698 19.143000 0.000000 # C
400 2 0.000000 36.840721 19.851999 0.000000 # C
401 2 0.000000 39.296768 17.016001 0.000000 # C
402 2 0.000000 38.068745 17.725000 0.000000 # C
403 2 0.000000 38.068745 19.143000 0.000000 # C
404 2 0.000000 39.296768 19.851999 0.000000 # C
405 2 0.000000 41.752815 17.016001 0.000000 # C
406 2 0.000000 40.524792 17.725000 0.000000 # C
407 2 0.000000 40.524792 19.143000 0.000000 # C
408 2 0.000000 41.752815 19.851999 0.000000 # C
409 2 0.000000 44.208866 17.016001 0.000000 # C
410 2 0.000000 42.980843 17.725000 0.000000 # C
411 2 0.000000 42.980843 19.143000 0.000000 # C
412 2 0.000000 44.208866 19.851999 0.000000 # C
413 2 0.000000 46.664913 17.016001 0.000000 # C
414 2 0.000000 45.436890 17.725000 0.000000 # C
415 2 0.000000 45.436890 19.143000 0.000000 # C
416 2 0.000000 46.664913 19.851999 0.000000 # C
417 2 0.000000 49.120960 17.016001 0.000000 # C
418 2 0.000000 47.892937 17.725000 0.000000 # C
419 2 0.000000 47.892937 19.143000 0.000000 # C
420 2 0.000000 49.120960 19.851999 0.000000 # C
421 2 0.000000 0.000000 21.270000 0.000000 # C
422 2 0.000000 -1.228024 21.979000 0.000000 # C
423 2 0.000000 -1.228024 23.396999 0.000000 # C
424 2 0.000000 0.000000 24.106001 0.000000 # C
425 2 0.000000 2.456048 21.270000 0.000000 # C
426 2 0.000000 1.228024 21.979000 0.000000 # C
427 2 0.000000 1.228024 23.396999 0.000000 # C
428 2 0.000000 2.456048 24.106001 0.000000 # C
429 2 0.000000 4.912096 21.270000 0.000000 # C
430 2 0.000000 3.684072 21.979000 0.000000 # C
431 2 0.000000 3.684072 23.396999 0.000000 # C
432 2 0.000000 4.912096 24.106001 0.000000 # C
433 2 0.000000 7.368144 21.270000 0.000000 # C
434 2 0.000000 6.140120 21.979000 0.000000 # C
435 2 0.000000 6.140120 23.396999 0.000000 # C
436 2 0.000000 7.368144 24.106001 0.000000 # C
437 2 0.000000 9.824192 21.270000 0.000000 # C
438 2 0.000000 8.596169 21.979000 0.000000 # C
439 2 0.000000 8.596169 23.396999 0.000000 # C
440 2 0.000000 9.824192 24.106001 0.000000 # C
441 2 0.000000 12.280240 21.270000 0.000000 # C
442 2 0.000000 11.052217 21.979000 0.000000 # C
443 2 0.000000 11.052217 23.396999 0.000000 # C
444 2 0.000000 12.280240 24.106001 0.000000 # C
445 2 0.000000 14.736288 21.270000 0.000000 # C
446 2 0.000000 13.508265 21.979000 0.000000 # C
447 2 0.000000 13.508265 23.396999 0.000000 # C
448 2 0.000000 14.736288 24.106001 0.000000 # C
449 2 0.000000 17.192337 21.270000 0.000000 # C
450 2 0.000000 15.964313 21.979000 0.000000 # C
451 2 0.000000 15.964313 23.396999 0.000000 # C
452 2 0.000000 17.192337 24.106001 0.000000 # C
453 2 0.000000 19.648384 21.270000 0.000000 # C
454 2 0.000000 18.420361 21.979000 0.000000 # C
455 2 0.000000 18.420361 23.396999 0.000000 # C
456 2 0.000000 19.648384 24.106001 0.000000 # C
457 2 0.000000 22.104433 21.270000 0.000000 # C
458 2 0.000000 20.876408 21.979000 0.000000 # C
459 2 0.000000 20.876408 23.396999 0.000000 # C
460 2 0.000000 22.104433 24.106001 0.000000 # C
461 2 0.000000 24.560480 21.270000 0.000000 # C
462 2 0.000000 23.332457 21.979000 0.000000 # C
463 2 0.000000 23.332457 23.396999 0.000000 # C
464 2 0.000000 24.560480 24.106001 0.000000 # C
465 2 0.000000 27.016529 21.270000 0.000000 # C
466 2 0.000000 25.788504 21.979000 0.000000 # C
467 2 0.000000 25.788504 23.396999 0.000000 # C
468 2 0.000000 27.016529 24.106001 0.000000 # C
469 2 0.000000 29.472576 21.270000 0.000000 # C
470 2 0.000000 28.244553 21.979000 0.000000 # C
471 2 0.000000 28.244553 23.396999 0.000000 # C
472 2 0.000000 29.472576 24.106001 0.000000 # C
473 2 0.000000 31.928625 21.270000 0.000000 # C
474 2 0.000000 30.700600 21.979000 0.000000 # C
475 2 0.000000 30.700600 23.396999 0.000000 # C
476 2 0.000000 31.928625 24.106001 0.000000 # C
477 2 0.000000 34.384674 21.270000 0.000000 # C
478 2 0.000000 33.156647 21.979000 0.000000 # C
479 2 0.000000 33.156647 23.396999 0.000000 # C
480 2 0.000000 34.384674 24.106001 0.000000 # C
481 2 0.000000 36.840721 21.270000 0.000000 # C
482 2 0.000000 35.612698 21.979000 0.000000 # C
483 2 0.000000 35.612698 23.396999 0.000000 # C
484 2 0.000000 36.840721 24.106001 0.000000 # C
485 2 0.000000 39.296768 21.270000 0.000000 # C
486 2 0.000000 38.068745 21.979000 0.000000 # C
487 2 0.000000 38.068745 23.396999 0.000000 # C
488 2 0.000000 39.296768 24.106001 0.000000 # C
489 2 0.000000 41.752815 21.270000 0.000000 # C
490 2 0.000000 40.524792 21.979000 0.000000 # C
491 2 0.000000 40.524792 23.396999 0.000000 # C
492 2 0.000000 41.752815 24.106001 0.000000 # C
493 2 0.000000 44.208866 21.270000 0.000000 # C
494 2 0.000000 42.980843 21.979000 0.000000 # C
495 2 0.000000 42.980843 23.396999 0.000000 # C
496 2 0.000000 44.208866 24.106001 0.000000 # C
497 2 0.000000 46.664913 21.270000 0.000000 # C
498 2 0.000000 45.436890 21.979000 0.000000 # C
499 2 0.000000 45.436890 23.396999 0.000000 # C
500 2 0.000000 46.664913 24.106001 0.000000 # C
501 2 0.000000 49.120960 21.270000 0.000000 # C
502 2 0.000000 47.892937 21.979000 0.000000 # C
503 2 0.000000 47.892937 23.396999 0.000000 # C
504 2 0.000000 49.120960 24.106001 0.000000 # C
505 2 0.000000 0.000000 25.524000 0.000000 # C
506 2 0.000000 -1.228024 26.233000 0.000000 # C
507 2 0.000000 -1.228024 27.650999 0.000000 # C
508 2 0.000000 0.000000 28.360001 0.000000 # C
509 2 0.000000 2.456048 25.524000 0.000000 # C
510 2 0.000000 1.228024 26.233000 0.000000 # C
511 2 0.000000 1.228024 27.650999 0.000000 # C
512 2 0.000000 2.456048 28.360001 0.000000 # C
513 2 0.000000 4.912096 25.524000 0.000000 # C
514 2 0.000000 3.684072 26.233000 0.000000 # C
515 2 0.000000 3.684072 27.650999 0.000000 # C
516 2 0.000000 4.912096 28.360001 0.000000 # C
517 2 0.000000 7.368144 25.524000 0.000000 # C
518 2 0.000000 6.140120 26.233000 0.000000 # C
519 2 0.000000 6.140120 27.650999 0.000000 # C
520 2 0.000000 7.368144 28.360001 0.000000 # C
521 2 0.000000 9.824192 25.524000 0.000000 # C
522 2 0.000000 8.596169 26.233000 0.000000 # C
523 2 0.000000 8.596169 27.650999 0.000000 # C
524 2 0.000000 9.824192 28.360001 0.000000 # C
525 2 0.000000 12.280240 25.524000 0.000000 # C
526 2 0.000000 11.052217 26.233000 0.000000 # C
527 2 0.000000 11.052217 27.650999 0.000000 # C
528 2 0.000000 12.280240 28.360001 0.000000 # C
529 2 0.000000 14.736288 25.524000 0.000000 # C
530 2 0.000000 13.508265 26.233000 0.000000 # C
531 2 0.000000 13.508265 27.650999 0.000000 # C
532 2 0.000000 14.736288 28.360001 0.000000 # C
533 2 0.000000 17.192337 25.524000 0.000000 # C
534 2 0.000000 15.964313 26.233000 0.000000 # C
535 2 0.000000 15.964313 27.650999 0.000000 # C
536 2 0.000000 17.192337 28.360001 0.000000 # C
537 2 0.000000 19.648384 25.524000 0.000000 # C
538 2 0.000000 18.420361 26.233000 0.000000 # C
539 2 0.000000 18.420361 27.650999 0.000000 # C
540 2 0.000000 19.648384 28.360001 0.000000 # C
541 2 0.000000 22.104433 25.524000 0.000000 # C
542 2 0.000000 20.876408 26.233000 0.000000 # C
543 2 0.000000 20.876408 27.650999 0.000000 # C
544 2 0.000000 22.104433 28.360001 0.000000 # C
545 2 0.000000 24.560480 25.524000 0.000000 # C
546 2 0.000000 23.332457 26.233000 0.000000 # C
547 2 0.000000 23.332457 27.650999 0.000000 # C
548 2 0.000000 24.560480 28.360001 0.000000 # C
549 2 0.000000 27.016529 25.524000 0.000000 # C
550 2 0.000000 25.788504 26.233000 0.000000 # C
551 2 0.000000 25.788504 27.650999 0.000000 # C
552 2 0.000000 27.016529 28.360001 0.000000 # C
553 2 0.000000 29.472576 25.524000 0.000000 # C
554 2 0.000000 28.244553 26.233000 0.000000 # C
555 2 0.000000 28.244553 27.650999 0.000000 # C
556 2 0.000000 29.472576 28.360001 0.000000 # C
557 2 0.000000 31.928625 25.524000 0.000000 # C
558 2 0.000000 30.700600 26.233000 0.000000 # C
559 2 0.000000 30.700600 27.650999 0.000000 # C
560 2 0.000000 31.928625 28.360001 0.000000 # C
561 2 0.000000 34.384674 25.524000 0.000000 # C
562 2 0.000000 33.156647 26.233000 0.000000 # C
563 2 0.000000 33.156647 27.650999 0.000000 # C
564 2 0.000000 34.384674 28.360001 0.000000 # C
565 2 0.000000 36.840721 25.524000 0.000000 # C
566 2 0.000000 35.612698 26.233000 0.000000 # C
567 2 0.000000 35.612698 27.650999 0.000000 # C
568 2 0.000000 36.840721 28.360001 0.000000 # C
569 2 0.000000 39.296768 25.524000 0.000000 # C
570 2 0.000000 38.068745 26.233000 0.000000 # C
571 2 0.000000 38.068745 27.650999 0.000000 # C
572 2 0.000000 39.296768 28.360001 0.000000 # C
573 2 0.000000 41.752815 25.524000 0.000000 # C
574 2 0.000000 40.524792 26.233000 0.000000 # C
575 2 0.000000 40.524792 27.650999 0.000000 # C
576 2 0.000000 41.752815 28.360001 0.000000 # C
577 2 0.000000 44.208866 25.524000 0.000000 # C
578 2 0.000000 42.980843 26.233000 0.000000 # C
579 2 0.000000 42.980843 27.650999 0.000000 # C
580 2 0.000000 44.208866 28.360001 0.000000 # C
581 2 0.000000 46.664913 25.524000 0.000000 # C
582 2 0.000000 45.436890 26.233000 0.000000 # C
583 2 0.000000 45.436890 27.650999 0.000000 # C
584 2 0.000000 46.664913 28.360001 0.000000 # C
585 2 0.000000 49.120960 25.524000 0.000000 # C
586 2 0.000000 47.892937 26.233000 0.000000 # C
587 2 0.000000 47.892937 27.650999 0.000000 # C
588 2 0.000000 49.120960 28.360001 0.000000 # C
589 2 0.000000 0.000000 29.778000 0.000000 # C
590 2 0.000000 -1.228024 30.487000 0.000000 # C
591 2 0.000000 -1.228024 31.905001 0.000000 # C
592 2 0.000000 0.000000 32.613998 0.000000 # C
593 2 0.000000 2.456048 29.778000 0.000000 # C
594 2 0.000000 1.228024 30.487000 0.000000 # C
595 2 0.000000 1.228024 31.905001 0.000000 # C
596 2 0.000000 2.456048 32.613998 0.000000 # C
597 2 0.000000 4.912096 29.778000 0.000000 # C
598 2 0.000000 3.684072 30.487000 0.000000 # C
599 2 0.000000 3.684072 31.905001 0.000000 # C
600 2 0.000000 4.912096 32.613998 0.000000 # C
601 2 0.000000 7.368144 29.778000 0.000000 # C
602 2 0.000000 6.140120 30.487000 0.000000 # C
603 2 0.000000 6.140120 31.905001 0.000000 # C
604 2 0.000000 7.368144 32.613998 0.000000 # C
605 2 0.000000 9.824192 29.778000 0.000000 # C
606 2 0.000000 8.596169 30.487000 0.000000 # C
607 2 0.000000 8.596169 31.905001 0.000000 # C
608 2 0.000000 9.824192 32.613998 0.000000 # C
609 2 0.000000 12.280240 29.778000 0.000000 # C
610 2 0.000000 11.052217 30.487000 0.000000 # C
611 2 0.000000 11.052217 31.905001 0.000000 # C
612 2 0.000000 12.280240 32.613998 0.000000 # C
613 2 0.000000 14.736288 29.778000 0.000000 # C
614 2 0.000000 13.508265 30.487000 0.000000 # C
615 2 0.000000 13.508265 31.905001 0.000000 # C
616 2 0.000000 14.736288 32.613998 0.000000 # C
617 2 0.000000 17.192337 29.778000 0.000000 # C
618 2 0.000000 15.964313 30.487000 0.000000 # C
619 2 0.000000 15.964313 31.905001 0.000000 # C
620 2 0.000000 17.192337 32.613998 0.000000 # C
621 2 0.000000 19.648384 29.778000 0.000000 # C
622 2 0.000000 18.420361 30.487000 0.000000 # C
623 2 0.000000 18.420361 31.905001 0.000000 # C
624 2 0.000000 19.648384 32.613998 0.000000 # C